triphenylphosphite
37 atoms
39 bonds
4 atom types
 -5.583800   5.044400 xlo xhi
 -3.985500   5.218100 ylo yhi
 -2.845100   1.413000 zlo zhi
  0.000000   0.000000   0.000000 xy xz yz


Masses

4   1.00784
1   12.011
2   15.9994
3   30.9738



Atoms

1    1  -0.806300   2.219400   0.383600
2    1  -1.689600   2.554200  -0.632400
3    1  -1.640000   3.811400  -1.202900
4    1  -0.711000   4.735700  -0.762000
5    1   0.170800   4.404300   0.250100
6    1   0.125000   3.148600   0.824100
7    2  -0.856800   0.985200   0.950200
8    3   0.078100  -0.106900   0.225300
9    2   1.466600   0.058700   1.023200
10   1   2.531300  -0.517200   0.405300
11   1   3.291900   0.214800  -0.494800
12   1   4.373500  -0.373000  -1.121600
13   1   4.698400  -1.689700  -0.852500
14   1   3.941700  -2.421600   0.043900
15   1   2.862700  -1.836500   0.678000
16   2  -0.491300  -1.487300   0.827200
17   1  -1.690300  -1.863200   0.309400
18   1  -1.741700  -2.561400  -0.888300
19   1  -2.961800  -2.942300  -1.412500
20   1  -4.130900  -2.628300  -0.744600
21   1  -4.082400  -1.932100   0.449100
22   1  -2.864500  -1.554300   0.980600
23   4  -2.415300   1.832500  -0.977400
24   4  -2.327200   4.072400  -1.994100
25   4  -0.673800   5.718100  -1.209300
26   4   0.896000   5.127800   0.592200
27   4   0.813900   2.890300   1.614600
28   4   3.038300   1.243200  -0.705600
29   4   4.965700   0.196400  -1.822700
30   4   5.544400  -2.147400  -1.343500
31   4   4.197000  -3.450100   0.251900
32   4   2.271900  -2.408600   1.378100
33   4  -0.828800  -2.806600  -1.410600
34   4  -3.002400  -3.485500  -2.345100
35   4  -5.083800  -2.927000  -1.156100
36   4  -4.997000  -1.687400   0.968600
37   4  -2.827100  -1.010600   1.913000


Bonds

1          1       1       2
2          1       2       3
3          1       3       4
4          1       4       5
5          1       5       6
6          1       1       6
7          2       1       7
8          3       7       8
9          0       9       8
10         0      10       9
11         1      10      11
12         1      11      12
13         1      12      13
14         1      13      14
15         1      14      15
16         1      10      15
17         0       8      16
18         0      16      17
19         1      17      18
20         1      18      19
21         1      19      20
22         1      20      21
23         1      21      22
24         1      17      22
25         4       2      23
26         4       3      24
27         4       4      25
28         4       5      26
29         4       6      27
30         4      11      28
31         4      12      29
32         4      13      30
33         4      14      31
34         4      15      32
35         4      18      33
36         4      19      34
37         4      20      35
38         4      21      36
39         4      22      37

